<?xml version="1.0" encoding="UTF-8"?>
<VTKFile type="UnstructuredGrid" version="0.1" byte_order="LittleEndian">
<UnstructuredGrid>
<Piece NumberOfPoints="101" NumberOfCells="100">
<PointData>
<DataArray type="Float64" Name="Height" Format="ascii">
0
0.6550848785838682
1.307053416802628
1.9526849900095016
2.58851542639431
3.2105911284724615
3.813877727466872
4.389757015270546
4.850012216497665
3.85326612201836
0.490004781147594
0.49845310539109794
0.44935678937646634
0.3925384159774644
0.34992766685610055
0.32223138965981835
0.3050615306545289
0.29492589484658704
0.28668820677400514
0.2817472358039374
0.28141572533603726
0.2861969369696127
0.24524645834999612
0.19241941289070916
0.15642639446515905
0.1612520255015943
0.16208779749559718
0.16710905041166454
0.16974766158329668
0.16516346996411066
0.16995068617194733
0.17472489879370195
0.1796753057065074
0.18439002950168024
0.18835492867526163
0.1901436964980871
0.19386026018520616
0.1967775043795398
0.19299291423288628
0.1968449818224343
0.20102796816352914
0.2046515240939786
0.20444625661710544
0.2069159410785215
0.20753225992257252
0.21188026204729954
0.2155266846889734
0.22016155495662654
0.2189283214306651
0.20670643312166428
0.20403867543662166
0.20037075380307567
0.20168585536795264
0.20198743897472027
0.205605794714881
0.20427169065949052
0.20792579617990659
0.2116268589374053
0.21531182369563653
0.21806941961826382
0.22156611652407396
0.22316592406493835
0.21811859834888542
0.2175409730447208
0.21913914556875957
0.2198613894778291
0.2214953322333471
0.22481232306423712
0.22747627597074793
0.23047057476598787
0.23232036912993498
0.2348271589081173
0.23660169474359455
0.23804173271222584
0.23924683792514664
0.24051436846077187
0.24200532240849434
0.24321124858063858
0.24446779215617745
0.24547469073609227
0.2469312398626941
0.23941989027594104
0.2393438132928827
0.23495165418264347
0.2249841632847165
0.22339994969475546
0.22476050182468962
0.22493091604573892
0.22650962212537729
0.22848405184426615
0.2310417109125267
0.23333779107022523
0.23140100130385724
0.23137124657187394
0.23299129047935743
0.23512359914559605
0.2340481340080647
0.23214433128807022
0.23276375948833028
0.233167937780076
0.23474214271650298
</DataArray>
</PointData>
<CellData/>
<Points>
<DataArray type="Float64" NumberOfComponents="3" Format="ascii">
0 0 0
-0.02 0 0
-0.04 0 0
-0.060000000000000005 0 0
-0.08 0 0
-0.1 0 0
-0.12000000000000001 0 0
-0.14 0 0
-0.16 0 0
-0.18 0 0
-0.2 0 0
-0.22 0 0
-0.24000000000000002 0 0
-0.26 0 0
-0.28 0 0
-0.3 0 0
-0.32 0 0
-0.34 0 0
-0.36 0 0
-0.38 0 0
-0.4 0 0
-0.42000000000000004 0 0
-0.44 0 0
-0.46 0 0
-0.48000000000000004 0 0
-0.5 0 0
-0.52 0 0
-0.54 0 0
-0.56 0 0
-0.58 0 0
-0.6 0 0
-0.62 0 0
-0.64 0 0
-0.66 0 0
-0.68 0 0
-0.7000000000000001 0 0
-0.72 0 0
-0.74 0 0
-0.76 0 0
-0.7800000000000001 0 0
-0.8 0 0
-0.8200000000000001 0 0
-0.8400000000000001 0 0
-0.86 0 0
-0.88 0 0
-0.9000000000000001 0 0
-0.92 0 0
-0.9400000000000001 0 0
-0.9600000000000001 0 0
-0.98 0 0
-1 0 0
-1.02 0 0
-1.04 0 0
-1.0600000000000003 0 0
-1.08 0 0
-1.1 0 0
-1.12 0 0
-1.1400000000000001 0 0
-1.16 0 0
-1.1800000000000002 0 0
-1.2 0 0
-1.22 0 0
-1.24 0 0
-1.26 0 0
-1.28 0 0
-1.3000000000000003 0 0
-1.32 0 0
-1.34 0 0
-1.36 0 0
-1.3800000000000001 0 0
-1.4000000000000001 0 0
-1.42 0 0
-1.44 0 0
-1.46 0 0
-1.48 0 0
-1.5 0 0
-1.52 0 0
-1.54 0 0
-1.5600000000000003 0 0
-1.58 0 0
-1.6 0 0
-1.62 0 0
-1.6400000000000001 0 0
-1.6600000000000001 0 0
-1.6800000000000002 0 0
-1.7 0 0
-1.72 0 0
-1.74 0 0
-1.76 0 0
-1.78 0 0
-1.8000000000000003 0 0
-1.82 0 0
-1.84 0 0
-1.86 0 0
-1.8800000000000001 0 0
-1.9000000000000001 0 0
-1.9200000000000002 0 0
-1.94 0 0
-1.96 0 0
-1.98 0 0
-2 0 0
</DataArray>
</Points>
<Cells>
<DataArray type="Int32" Name="connectivity" Format="ascii">
0 1
1 2
2 3
3 4
4 5
5 6
6 7
7 8
8 9
9 10
10 11
11 12
12 13
13 14
14 15
15 16
16 17
17 18
18 19
19 20
20 21
21 22
22 23
23 24
24 25
25 26
26 27
27 28
28 29
29 30
30 31
31 32
32 33
33 34
34 35
35 36
36 37
37 38
38 39
39 40
40 41
41 42
42 43
43 44
44 45
45 46
46 47
47 48
48 49
49 50
50 51
51 52
52 53
53 54
54 55
55 56
56 57
57 58
58 59
59 60
60 61
61 62
62 63
63 64
64 65
65 66
66 67
67 68
68 69
69 70
70 71
71 72
72 73
73 74
74 75
75 76
76 77
77 78
78 79
79 80
80 81
81 82
82 83
83 84
84 85
85 86
86 87
87 88
88 89
89 90
90 91
91 92
92 93
93 94
94 95
95 96
96 97
97 98
98 99
99 100
</DataArray>
<DataArray type="Int32" Name="offsets" Format="ascii">
2 4 6 8
10 12 14 16
18 20 22 24
26 28 30 32
34 36 38 40
42 44 46 48
50 52 54 56
58 60 62 64
66 68 70 72
74 76 78 80
82 84 86 88
90 92 94 96
98 100 102 104
106 108 110 112
114 116 118 120
122 124 126 128
130 132 134 136
138 140 142 144
146 148 150 152
154 156 158 160
162 164 166 168
170 172 174 176
178 180 182 184
186 188 190 192
194 196 198 200
</DataArray>
<DataArray type="UInt8" Name="types" Format="ascii">
3 3 3 3 3 3 3 3 3 3 3 3 3 3 3 3
3 3 3 3 3 3 3 3 3 3 3 3 3 3 3 3
3 3 3 3 3 3 3 3 3 3 3 3 3 3 3 3
3 3 3 3 3 3 3 3 3 3 3 3 3 3 3 3
3 3 3 3 3 3 3 3 3 3 3 3 3 3 3 3
3 3 3 3 3 3 3 3 3 3 3 3 3 3 3 3
3 3 3 3
</DataArray>
</Cells>
</Piece>
</UnstructuredGrid>
</VTKFile>
