<?xml version="1.0" encoding="UTF-8"?>
<VTKFile type="UnstructuredGrid" version="0.1" byte_order="LittleEndian">
<UnstructuredGrid>
<Piece NumberOfPoints="101" NumberOfCells="100">
<PointData>
<DataArray type="Float64" Name="Height" Format="ascii">
0
0.551555159934246
1.100607512500444
1.644579234364951
2.1807189335968147
2.7059344308955353
3.2164241625387486
3.706450795570387
4.151424781584665
3.4450399105992564
0.9263397362875488
0.489374732784199
0.30778660257071283
0.31199443314173114
0.2862472211635708
0.2624133227401771
0.23233730724314072
0.17832416436785203
0.16950836669275512
0.1701209221775124
0.17735211278869784
0.18539389513154808
0.19192641273971825
0.1974741225453462
0.1828528237867394
0.17792472975679502
0.18338723283532243
0.18925024502080265
0.19326816385123793
0.18479623867121212
0.16987075389132003
0.15273222053891256
0.15266854836683066
0.1376060308550601
0.13883750612356108
0.14180621204806443
0.1453358080769078
0.1479016630982942
0.14852833292115253
0.14936190158458715
0.15212466933436283
0.1550338301976536
0.1580320188227675
0.15903070637591246
0.14770483736020365
0.146073646599127
0.14928619084076822
0.15213966185937317
0.15448439977310882
0.15355466082658956
0.1515766301508077
0.15367576928058269
0.15415731113605644
0.15366025624482196
0.15310432476550587
0.1501142028632265
0.14614434416838323
0.14816364028140577
0.1507254789648908
0.151902518678014
0.1524454595713494
0.15130287683863483
0.15215022685568771
0.14976658442889493
0.15024974929742851
0.15222823838646982
0.15393679740585156
0.1562362247688257
0.15848910251784482
0.15735710897088095
0.15711280002219022
0.15691320072436266
0.15383180975481903
0.15438399768674374
0.15578660598130203
0.1570314934003687
0.1547710010705613
0.1547529015294137
0.15663618778895053
0.15523798303268846
0.15708795297947115
0.1588207219373288
0.1558300513963883
0.1573788983106858
0.15857274859999934
0.16045221129099146
0.16047715046522265
0.15793969875549685
0.1587427221582477
0.1575373521132109
0.15773871584958402
0.15948995391815352
0.16124061528110337
0.16298971184824018
0.16464043290490574
0.16484011873618
0.1663191186444249
0.16747638413168414
0.16919758408291927
0.17051639793513454
0.17220197224691414
</DataArray>
</PointData>
<CellData/>
<Points>
<DataArray type="Float64" NumberOfComponents="3" Format="ascii">
0 0 0
-0.02 0 0
-0.04 0 0
-0.060000000000000005 0 0
-0.08 0 0
-0.1 0 0
-0.12000000000000001 0 0
-0.14 0 0
-0.16 0 0
-0.18 0 0
-0.2 0 0
-0.22 0 0
-0.24000000000000002 0 0
-0.26 0 0
-0.28 0 0
-0.3 0 0
-0.32 0 0
-0.34 0 0
-0.36 0 0
-0.38 0 0
-0.4 0 0
-0.42000000000000004 0 0
-0.44 0 0
-0.46 0 0
-0.48000000000000004 0 0
-0.5 0 0
-0.52 0 0
-0.54 0 0
-0.56 0 0
-0.58 0 0
-0.6 0 0
-0.62 0 0
-0.64 0 0
-0.66 0 0
-0.68 0 0
-0.7000000000000001 0 0
-0.72 0 0
-0.74 0 0
-0.76 0 0
-0.7800000000000001 0 0
-0.8 0 0
-0.8200000000000001 0 0
-0.8400000000000001 0 0
-0.86 0 0
-0.88 0 0
-0.9000000000000001 0 0
-0.92 0 0
-0.9400000000000001 0 0
-0.9600000000000001 0 0
-0.98 0 0
-1 0 0
-1.02 0 0
-1.04 0 0
-1.0600000000000003 0 0
-1.08 0 0
-1.1 0 0
-1.12 0 0
-1.1400000000000001 0 0
-1.16 0 0
-1.1800000000000002 0 0
-1.2 0 0
-1.22 0 0
-1.24 0 0
-1.26 0 0
-1.28 0 0
-1.3000000000000003 0 0
-1.32 0 0
-1.34 0 0
-1.36 0 0
-1.3800000000000001 0 0
-1.4000000000000001 0 0
-1.42 0 0
-1.44 0 0
-1.46 0 0
-1.48 0 0
-1.5 0 0
-1.52 0 0
-1.54 0 0
-1.5600000000000003 0 0
-1.58 0 0
-1.6 0 0
-1.62 0 0
-1.6400000000000001 0 0
-1.6600000000000001 0 0
-1.6800000000000002 0 0
-1.7 0 0
-1.72 0 0
-1.74 0 0
-1.76 0 0
-1.78 0 0
-1.8000000000000003 0 0
-1.82 0 0
-1.84 0 0
-1.86 0 0
-1.8800000000000001 0 0
-1.9000000000000001 0 0
-1.9200000000000002 0 0
-1.94 0 0
-1.96 0 0
-1.98 0 0
-2 0 0
</DataArray>
</Points>
<Cells>
<DataArray type="Int32" Name="connectivity" Format="ascii">
0 1
1 2
2 3
3 4
4 5
5 6
6 7
7 8
8 9
9 10
10 11
11 12
12 13
13 14
14 15
15 16
16 17
17 18
18 19
19 20
20 21
21 22
22 23
23 24
24 25
25 26
26 27
27 28
28 29
29 30
30 31
31 32
32 33
33 34
34 35
35 36
36 37
37 38
38 39
39 40
40 41
41 42
42 43
43 44
44 45
45 46
46 47
47 48
48 49
49 50
50 51
51 52
52 53
53 54
54 55
55 56
56 57
57 58
58 59
59 60
60 61
61 62
62 63
63 64
64 65
65 66
66 67
67 68
68 69
69 70
70 71
71 72
72 73
73 74
74 75
75 76
76 77
77 78
78 79
79 80
80 81
81 82
82 83
83 84
84 85
85 86
86 87
87 88
88 89
89 90
90 91
91 92
92 93
93 94
94 95
95 96
96 97
97 98
98 99
99 100
</DataArray>
<DataArray type="Int32" Name="offsets" Format="ascii">
2 4 6 8
10 12 14 16
18 20 22 24
26 28 30 32
34 36 38 40
42 44 46 48
50 52 54 56
58 60 62 64
66 68 70 72
74 76 78 80
82 84 86 88
90 92 94 96
98 100 102 104
106 108 110 112
114 116 118 120
122 124 126 128
130 132 134 136
138 140 142 144
146 148 150 152
154 156 158 160
162 164 166 168
170 172 174 176
178 180 182 184
186 188 190 192
194 196 198 200
</DataArray>
<DataArray type="UInt8" Name="types" Format="ascii">
3 3 3 3 3 3 3 3 3 3 3 3 3 3 3 3
3 3 3 3 3 3 3 3 3 3 3 3 3 3 3 3
3 3 3 3 3 3 3 3 3 3 3 3 3 3 3 3
3 3 3 3 3 3 3 3 3 3 3 3 3 3 3 3
3 3 3 3 3 3 3 3 3 3 3 3 3 3 3 3
3 3 3 3 3 3 3 3 3 3 3 3 3 3 3 3
3 3 3 3
</DataArray>
</Cells>
</Piece>
</UnstructuredGrid>
</VTKFile>
