<?xml version="1.0" encoding="UTF-8"?>
<VTKFile type="UnstructuredGrid" version="0.1" byte_order="LittleEndian">
<UnstructuredGrid>
<Piece NumberOfPoints="53" NumberOfCells="52">
<PointData>
<DataArray type="Float64" Name="Height" Format="ascii">
0
0.35793668965930037
0.7142220233082317
1.0671528913251214
1.4148977975017134
1.7553235665373772
2.0851917513513243
2.387990948132247
1.942949137665916
1.2251777587364934
1.1056192158294358
0.5679821284993847
0.44338023036255764
0.3892901996806757
0.12181516326635675
0.12055583066766408
0.12587101018244443
0.1320213161483967
0.1388322387391637
0.1404226448342049
0.13781205670066837
0.14044580011662003
0.1464994929131728
0.152418807956797
0.15622075330845697
0.15988096213362188
0.163031888892577
0.14918610676606095
0.1262962944262267
0.1163586399171533
0.11030297681925541
0.10408219696260043
0.10411083518423399
0.10017151791362129
0.10220957259924986
0.10457724800326854
0.10712851087342226
0.10526803870210912
0.09892764039735653
0.10123799136853102
0.10115103091214127
0.10018491986753618
0.09989222946512391
0.10046651369418128
0.10257382926825098
0.1044333883534731
0.10516584330861618
0.10161520166254819
0.09753264956917705
0.09618098940969957
0.09575058734925307
0.09730153873929646
0.09904519822749312
</DataArray>
</PointData>
<CellData/>
<Points>
<DataArray type="Float64" NumberOfComponents="3" Format="ascii">
0 0 0
-0.02 0 0
-0.04 0 0
-0.060000000000000005 0 0
-0.08 0 0
-0.1 0 0
-0.12000000000000001 0 0
-0.14 0 0
-0.16 0 0
-0.18 0 0
-0.2 0 0
-0.22 0 0
-0.24000000000000002 0 0
-0.26 0 0
-0.28 0 0
-0.3 0 0
-0.32 0 0
-0.34 0 0
-0.36 0 0
-0.38 0 0
-0.4 0 0
-0.42000000000000004 0 0
-0.44 0 0
-0.46 0 0
-0.48000000000000004 0 0
-0.5 0 0
-0.52 0 0
-0.54 0 0
-0.56 0 0
-0.58 0 0
-0.6 0 0
-0.62 0 0
-0.64 0 0
-0.66 0 0
-0.68 0 0
-0.7000000000000001 0 0
-0.72 0 0
-0.74 0 0
-0.76 0 0
-0.7800000000000001 0 0
-0.8 0 0
-0.8200000000000001 0 0
-0.8400000000000001 0 0
-0.86 0 0
-0.88 0 0
-0.9000000000000001 0 0
-0.92 0 0
-0.9400000000000001 0 0
-0.9600000000000001 0 0
-0.98 0 0
-1 0 0
-1.02 0 0
-1.04 0 0
</DataArray>
</Points>
<Cells>
<DataArray type="Int32" Name="connectivity" Format="ascii">
0 1
1 2
2 3
3 4
4 5
5 6
6 7
7 8
8 9
9 10
10 11
11 12
12 13
13 14
14 15
15 16
16 17
17 18
18 19
19 20
20 21
21 22
22 23
23 24
24 25
25 26
26 27
27 28
28 29
29 30
30 31
31 32
32 33
33 34
34 35
35 36
36 37
37 38
38 39
39 40
40 41
41 42
42 43
43 44
44 45
45 46
46 47
47 48
48 49
49 50
50 51
51 52
</DataArray>
<DataArray type="Int32" Name="offsets" Format="ascii">
2 4 6 8
10 12 14 16
18 20 22 24
26 28 30 32
34 36 38 40
42 44 46 48
50 52 54 56
58 60 62 64
66 68 70 72
74 76 78 80
82 84 86 88
90 92 94 96
98 100 102 104
</DataArray>
<DataArray type="UInt8" Name="types" Format="ascii">
3 3 3 3 3 3 3 3 3 3 3 3 3 3 3 3
3 3 3 3 3 3 3 3 3 3 3 3 3 3 3 3
3 3 3 3 3 3 3 3 3 3 3 3 3 3 3 3
3 3 3 3
</DataArray>
</Cells>
</Piece>
</UnstructuredGrid>
</VTKFile>
