<?xml version="1.0" encoding="UTF-8"?>
<VTKFile type="UnstructuredGrid" version="0.1" byte_order="LittleEndian">
<UnstructuredGrid>
<Piece NumberOfPoints="101" NumberOfCells="100">
<PointData>
<DataArray type="Float64" Name="Height" Format="ascii">
0
0.8107709006551641
1.618615928484112
2.4205720230589582
3.213594682624472
3.9944960990155156
4.759845834186698
5.505788128512172
6.227642282490389
6.91872134543147
7.56056379464683
7.667528563602096
6.522343092626715
0.4931814145482246
0.4130279907844753
0.3510791671043711
0.31143636795367186
0.2951115596557971
0.2876223869674039
0.27524145050463966
0.27013158972533846
0.26790592805316765
0.2340541271436526
0.17893088428683068
0.13523042334770327
0.12900427418409763
0.12805299797679068
0.13041548116863497
0.1335970253092078
0.13776180252347897
0.14176516137844097
0.1438091454382666
0.13454591627652043
0.13017517665574074
0.1315149102456796
0.13518081003146254
0.13582411448380366
0.13901837970748085
0.14062362522086216
0.14150392957424154
0.13905295552192348
0.14167931466285827
0.14344357232943059
0.14426594220549815
0.14686173602009064
0.1491231927807861
0.15226585782179627
0.15438277330287026
0.1533307293896829
0.15502497358285727
0.15527594013471305
0.1537354662258144
0.15561786715010706
0.15789253485214466
0.16049772346102412
0.16335209229667444
0.16579738386301607
0.16819555400743177
0.16315557439098766
0.16284574377642852
0.16364685505884016
0.16333160079810674
0.16167368302406868
0.1630860940271511
0.16518265685052774
0.16701456203359163
0.16892612758274744
0.16941405790103012
0.16991532537493892
0.17224619238019806
0.172334071987211
0.17452862359731316
0.17529275528279753
0.1668886148147721
0.16857527871546954
0.16976294757249433
0.17110864668215237
0.1722041561395342
0.17381051054036298
0.17589525607735015
0.17686810077302095
0.17852591257559428
0.1801605084900332
0.18031680201820843
0.18209119130777887
0.18349081986856164
0.18457847684371942
0.1862263115760032
0.1875743219400266
0.1893130565444866
0.19022008333534227
0.19011354811977738
0.1882045990494794
0.18907511421199183
0.18937561446575918
0.1859061640010725
0.18716513557505934
0.18847614525101547
0.1891943360077919
0.19003727541111778
0.19072289478753823
</DataArray>
</PointData>
<CellData/>
<Points>
<DataArray type="Float64" NumberOfComponents="3" Format="ascii">
0 0 0
-0.02 0 0
-0.04 0 0
-0.060000000000000005 0 0
-0.08 0 0
-0.1 0 0
-0.12000000000000001 0 0
-0.14 0 0
-0.16 0 0
-0.18 0 0
-0.2 0 0
-0.22 0 0
-0.24000000000000002 0 0
-0.26 0 0
-0.28 0 0
-0.3 0 0
-0.32 0 0
-0.34 0 0
-0.36 0 0
-0.38 0 0
-0.4 0 0
-0.42000000000000004 0 0
-0.44 0 0
-0.46 0 0
-0.48000000000000004 0 0
-0.5 0 0
-0.52 0 0
-0.54 0 0
-0.56 0 0
-0.58 0 0
-0.6 0 0
-0.62 0 0
-0.64 0 0
-0.66 0 0
-0.68 0 0
-0.7000000000000001 0 0
-0.72 0 0
-0.74 0 0
-0.76 0 0
-0.7800000000000001 0 0
-0.8 0 0
-0.8200000000000001 0 0
-0.8400000000000001 0 0
-0.86 0 0
-0.88 0 0
-0.9000000000000001 0 0
-0.92 0 0
-0.9400000000000001 0 0
-0.9600000000000001 0 0
-0.98 0 0
-1 0 0
-1.02 0 0
-1.04 0 0
-1.0600000000000003 0 0
-1.08 0 0
-1.1 0 0
-1.12 0 0
-1.1400000000000001 0 0
-1.16 0 0
-1.1800000000000002 0 0
-1.2 0 0
-1.22 0 0
-1.24 0 0
-1.26 0 0
-1.28 0 0
-1.3000000000000003 0 0
-1.32 0 0
-1.34 0 0
-1.36 0 0
-1.3800000000000001 0 0
-1.4000000000000001 0 0
-1.42 0 0
-1.44 0 0
-1.46 0 0
-1.48 0 0
-1.5 0 0
-1.52 0 0
-1.54 0 0
-1.5600000000000003 0 0
-1.58 0 0
-1.6 0 0
-1.62 0 0
-1.6400000000000001 0 0
-1.6600000000000001 0 0
-1.6800000000000002 0 0
-1.7 0 0
-1.72 0 0
-1.74 0 0
-1.76 0 0
-1.78 0 0
-1.8000000000000003 0 0
-1.82 0 0
-1.84 0 0
-1.86 0 0
-1.8800000000000001 0 0
-1.9000000000000001 0 0
-1.9200000000000002 0 0
-1.94 0 0
-1.96 0 0
-1.98 0 0
-2 0 0
</DataArray>
</Points>
<Cells>
<DataArray type="Int32" Name="connectivity" Format="ascii">
0 1
1 2
2 3
3 4
4 5
5 6
6 7
7 8
8 9
9 10
10 11
11 12
12 13
13 14
14 15
15 16
16 17
17 18
18 19
19 20
20 21
21 22
22 23
23 24
24 25
25 26
26 27
27 28
28 29
29 30
30 31
31 32
32 33
33 34
34 35
35 36
36 37
37 38
38 39
39 40
40 41
41 42
42 43
43 44
44 45
45 46
46 47
47 48
48 49
49 50
50 51
51 52
52 53
53 54
54 55
55 56
56 57
57 58
58 59
59 60
60 61
61 62
62 63
63 64
64 65
65 66
66 67
67 68
68 69
69 70
70 71
71 72
72 73
73 74
74 75
75 76
76 77
77 78
78 79
79 80
80 81
81 82
82 83
83 84
84 85
85 86
86 87
87 88
88 89
89 90
90 91
91 92
92 93
93 94
94 95
95 96
96 97
97 98
98 99
99 100
</DataArray>
<DataArray type="Int32" Name="offsets" Format="ascii">
2 4 6 8
10 12 14 16
18 20 22 24
26 28 30 32
34 36 38 40
42 44 46 48
50 52 54 56
58 60 62 64
66 68 70 72
74 76 78 80
82 84 86 88
90 92 94 96
98 100 102 104
106 108 110 112
114 116 118 120
122 124 126 128
130 132 134 136
138 140 142 144
146 148 150 152
154 156 158 160
162 164 166 168
170 172 174 176
178 180 182 184
186 188 190 192
194 196 198 200
</DataArray>
<DataArray type="UInt8" Name="types" Format="ascii">
3 3 3 3 3 3 3 3 3 3 3 3 3 3 3 3
3 3 3 3 3 3 3 3 3 3 3 3 3 3 3 3
3 3 3 3 3 3 3 3 3 3 3 3 3 3 3 3
3 3 3 3 3 3 3 3 3 3 3 3 3 3 3 3
3 3 3 3 3 3 3 3 3 3 3 3 3 3 3 3
3 3 3 3 3 3 3 3 3 3 3 3 3 3 3 3
3 3 3 3
</DataArray>
</Cells>
</Piece>
</UnstructuredGrid>
</VTKFile>
